 Q-Chem 6.2, Q-Chem, Inc., Pleasanton, CA (2024)
 Q-Chem 6.2.0 for Intel X86 EM64T Linux

User input:
--------------------------------------------------------------
$molecule
-1 1
C          4.11643       -1.48041       -0.71113
F          3.39409       -2.59960       -0.81726
F          4.22860       -0.91587       -1.91896
C          3.42207       -0.51789        0.28967
O          2.19271       -0.17339       -0.26905
C          1.01327       -0.29967        0.45351
C         -0.13361        0.37168       -0.37411
F          0.01715       -0.04365       -1.67355
F          5.34489       -1.80262       -0.27209
C          4.22273        0.78391        0.56775
F          4.46092        1.43773       -0.57729
F          3.31939       -1.18796        1.47185
F          3.52926        1.58045        1.38565
F          5.39884        0.49440        1.14858
F          1.10896        0.29403        1.66422
F          0.73814       -1.59933        0.65313
O         -1.28286       -0.10001        0.20694
C         -2.58410        0.27338       -0.22864
C         -0.00545        1.92942       -0.40146
C         -3.56377       -0.78378        0.32897
F         -2.86180        1.50249        0.24397
F         -2.61581        0.32085       -1.56915
S         -5.40120       -0.42965        0.07649
F         -3.22844       -1.95967       -0.27102
F         -3.29595       -0.90240        1.65906
F         -0.81928        2.44862       -1.32551
F         -0.30038        2.45428        0.79272
F          1.25554        2.29549       -0.71642
O         -6.01000       -1.70152        0.51923
O         -5.62749        0.73480        0.95974
O         -5.46900       -0.15244       -1.37593
$end

$rem
job_type=opt
basis=6-311++G(2d,2p)
method=b3lyp
$end
--------------------------------------------------------------

   16   -2777.3351432400      6.09e-09  Convergence criterion met
 Total energy = -2777.33514324
   12   -2777.3369844345      4.08e-09  Convergence criterion met
 Total energy = -2777.33698443
   11   -2777.3375184467      4.76e-09  Convergence criterion met
 Total energy = -2777.33751845
   10   -2777.3376764210      8.97e-09  Convergence criterion met
 Total energy = -2777.33767642
   10   -2777.3376988389      6.45e-09  Convergence criterion met
 Total energy = -2777.33769884
   10   -2777.3377114916      6.45e-09  Convergence criterion met
 Total energy = -2777.33771149
   10   -2777.3377928654      5.15e-09  Convergence criterion met
 Total energy = -2777.33779287
    9   -2777.3378100235      7.08e-09  Convergence criterion met
 Total energy = -2777.33781002
    9   -2777.3378272995      6.04e-09  Convergence criterion met
 Total energy = -2777.33782730
    9   -2777.3378337352      6.78e-09  Convergence criterion met
 Total energy = -2777.33783374
    9   -2777.3378362826      3.42e-09  Convergence criterion met
 Total energy = -2777.33783628
    8   -2777.3378378097      7.50e-09  Convergence criterion met
 Total energy = -2777.33783781
    7   -2777.3378380166      8.12e-09  Convergence criterion met
 Total energy = -2777.33783802

                    Orbital Energies (a.u.)
 --------------------------------------------------------------

 Alpha MOs
 -- Occupied --
-88.8994 -24.6952 -24.6949 -24.6942 -24.6937 -24.6932 -24.6918 -24.6908
-24.6673 -24.6659 -24.6653 -24.6641 -24.6634 -24.6465 -24.6228 -24.6205
-24.5909 -24.5908 -19.1636 -19.1222 -18.9581 -18.9574 -18.9571 -10.4148
-10.4139 -10.3859 -10.3807 -10.3465 -10.3296 -10.3128 -10.2444  -7.9545
 -5.9184  -5.9168  -5.9168  -1.3093  -1.3023  -1.2772  -1.2591  -1.2370
 -1.2170  -1.2154  -1.2144  -1.2137  -1.2130  -1.1942  -1.1850  -1.1849
 -1.1835  -1.1610  -1.1426  -1.1025  -1.0797  -1.0358  -0.9793  -0.8447
 -0.8441  -0.8087  -0.7592  -0.7063  -0.6896  -0.6847  -0.6466  -0.6229
 -0.6069  -0.6034  -0.5949  -0.5871  -0.5806  -0.5743  -0.5701  -0.5628
 -0.5612  -0.5572  -0.5550  -0.5396  -0.5330  -0.5219  -0.5026  -0.4959
 -0.4758  -0.4729  -0.4602  -0.4569  -0.4510  -0.4507  -0.4502  -0.4446
 -0.4416  -0.4307  -0.4276  -0.4236  -0.4220  -0.4200  -0.4189  -0.4127
 -0.4076  -0.4055  -0.4013  -0.3977  -0.3966  -0.3940  -0.3922  -0.3909
 -0.3876  -0.3776  -0.3726  -0.3695  -0.3676  -0.3630  -0.3622  -0.3528
 -0.3468  -0.3407  -0.3301  -0.3262  -0.3108  -0.3105  -0.3061  -0.3043
 -0.3034  -0.2811  -0.2778  -0.2013  -0.2010  -0.1697  -0.1682  -0.1573
 -0.1184

          Ground-State Mulliken Net Atomic Charges

     Atom                 Charge (a.u.)
  ----------------------------------------
      1 C                     1.345791
      2 F                    -0.284968
      3 F                    -0.286018
      4 C                    -0.459864
      5 O                    -0.215008
      6 C                     0.621392
      7 C                     0.053891
      8 F                    -0.275792
      9 F                    -0.316592
     10 C                     1.270525
     11 F                    -0.287687
     12 F                    -0.301672
     13 F                    -0.287757
     14 F                    -0.313387
     15 F                    -0.311230
     16 F                    -0.321957
     17 O                    -0.402774
     18 C                     0.639729
     19 C                     1.348264
     20 C                     0.472811
     21 F                    -0.269272
     22 F                    -0.279012
     23 S                     1.301938
     24 F                    -0.308016
     25 F                    -0.308895
     26 F                    -0.290875
     27 F                    -0.274062
     28 F                    -0.332476
     29 O                    -0.614525
     30 O                    -0.648281
     31 O                    -0.664224
  ----------------------------------------
  Sum of atomic charges =    -1.000000

                    Cartesian Multipole Moments
 -----------------------------------------------------------------
    Charge (ESU x 10^10)
                -4.8032
    Dipole Moment (Debye)
         X      22.1632      Y      -2.3612      Z       0.2919
       Tot      22.2906
    Quadrupole Moments (Debye-Ang)
        XX    -313.6751     XY      13.7733     YY    -187.9261
        XZ      -2.3837     YZ       0.6712     ZZ    -186.3029

 Final energy is -2777.337838016643
	**  OPTIMIZATION CONVERGED  **

             Standard Nuclear Orientation (Angstroms)
    I     Atom           X                Y                Z
 ----------------------------------------------------------------
    1      C       4.0004209487     1.4708906963     0.7489228947
    2      F       3.1652632606     2.4923926161     0.9297010770
    3      F       4.1670655801     0.8383820662     1.9126523269
    4      C       3.4127324822     0.5082279606    -0.3305631611
    5      O       2.2159399267     0.0015111264     0.1666690091
    6      C       1.0016688267     0.2251429006    -0.4601103210
    7      C      -0.1302619264    -0.4463887431     0.4007067117
    8      F       0.0357829517     0.0100212640     1.6824430828
    9      F       5.1849002127     1.9572259345     0.3543685234
   10      C       4.3329691723    -0.7066549974    -0.6685588425
   11      F       4.5575932490    -1.4541890869     0.4142475635
   12      F       3.2775922486     1.2272980611    -1.4724393182
   13      F       3.7415558337    -1.4600156024    -1.5959430135
   14      F       5.5102099061    -0.2900694589    -1.1515325389
   15      F       0.9986215205    -0.2793736388    -1.7082245335
   16      F       0.7538970214     1.5399113506    -0.5495514085
   17      O      -1.2762124480     0.0078981604    -0.1862980582
   18      C      -2.5929356432    -0.3016828864     0.2460087394
   19      C      -0.0000318924    -2.0081122082     0.4831892284
   20      C      -3.5234306901     0.7768344298    -0.3684474003
   21      F      -2.9131428222    -1.5288187776    -0.1873135948
   22      F      -2.6499239034    -0.2979908753     1.5816512949
   23      S      -5.3911575844     0.5529238774    -0.0716486638
   24      F      -3.1134467976     1.9680793973     0.1439688624
   25      F      -3.2723880409     0.7971897187    -1.7049938182
   26      F      -0.8610597033    -2.4984270922     1.3735462803
   27      F      -0.2298476259    -2.5725467522    -0.7039881616
   28      F       1.2345127904    -2.3655446453     0.8795808556
   29      O      -5.9145099176     1.7849765284    -0.6528696701
   30      O      -5.6870154392    -0.6720967048    -0.8083086927
   31      O      -5.4715331782     0.4513502282     1.3832254790
 ----------------------------------------------------------------

 Total job time:  1227.35s(wall), 13036.84s(cpu)
        *  Thank you very much for using Q-Chem.  Have a nice day.  *
