 Q-Chem 6.2, Q-Chem, Inc., Pleasanton, CA (2024)
 Q-Chem 6.2.0 for Intel X86 EM64T Linux

User input:
--------------------------------------------------------------
$molecule
-1 1
C          4.11643       -1.48041       -0.71113
F          3.39409       -2.59960       -0.81726
F          4.22860       -0.91587       -1.91896
C          3.42207       -0.51789        0.28967
O          2.19271       -0.17339       -0.26905
C          1.01327       -0.29967        0.45351
C         -0.13361        0.37168       -0.37411
F          0.01715       -0.04365       -1.67355
F          5.34489       -1.80262       -0.27209
C          4.22273        0.78391        0.56775
F          4.46092        1.43773       -0.57729
F          3.31939       -1.18796        1.47185
F          3.52926        1.58045        1.38565
F          5.39884        0.49440        1.14858
F          1.10896        0.29403        1.66422
F          0.73814       -1.59933        0.65313
O         -1.28286       -0.10001        0.20694
C         -2.58410        0.27338       -0.22864
C         -0.00545        1.92942       -0.40146
C         -3.56377       -0.78378        0.32897
F         -2.86180        1.50249        0.24397
F         -2.61581        0.32085       -1.56915
S         -5.40120       -0.42965        0.07649
F         -3.22844       -1.95967       -0.27102
F         -3.29595       -0.90240        1.65906
F         -0.81928        2.44862       -1.32551
F         -0.30038        2.45428        0.79272
F          1.25554        2.29549       -0.71642
O         -6.01000       -1.70152        0.51923
O         -5.62749        0.73480        0.95974
O         -5.46900       -0.15244       -1.37593
$end

$rem
job_type=opt
basis=6-311++G(2d,2p)
method=b3lyp
$end
--------------------------------------------------------------

   16   -2777.3351435191      6.08e-09  Convergence criterion met
 Total energy = -2777.33514352
   12   -2777.3369834982      4.06e-09  Convergence criterion met
 Total energy = -2777.33698350
   11   -2777.3375191173      4.75e-09  Convergence criterion met
 Total energy = -2777.33751912
   10   -2777.3376765086      8.93e-09  Convergence criterion met
 Total energy = -2777.33767651
   10   -2777.3376982072      6.48e-09  Convergence criterion met
 Total energy = -2777.33769821
   10   -2777.3377140152      6.46e-09  Convergence criterion met
 Total energy = -2777.33771402
   10   -2777.3377938536      5.11e-09  Convergence criterion met
 Total energy = -2777.33779385
    9   -2777.3378111042      7.06e-09  Convergence criterion met
 Total energy = -2777.33781110
    9   -2777.3378280591      6.07e-09  Convergence criterion met
 Total energy = -2777.33782806
    9   -2777.3378344894      6.74e-09  Convergence criterion met
 Total energy = -2777.33783449
    9   -2777.3378365607      3.47e-09  Convergence criterion met
 Total energy = -2777.33783656
    8   -2777.3378381123      7.34e-09  Convergence criterion met
 Total energy = -2777.33783811
    7   -2777.3378383184      7.77e-09  Convergence criterion met
 Total energy = -2777.33783832

                    Orbital Energies (a.u.)
 --------------------------------------------------------------

 Alpha MOs
 -- Occupied --
-88.8992 -24.6949 -24.6947 -24.6940 -24.6935 -24.6930 -24.6915 -24.6906
-24.6671 -24.6657 -24.6651 -24.6639 -24.6631 -24.6463 -24.6226 -24.6203
-24.5907 -24.5906 -19.1634 -19.1219 -18.9579 -18.9572 -18.9569 -10.4145
-10.4137 -10.3857 -10.3805 -10.3462 -10.3293 -10.3126 -10.2442  -7.9543
 -5.9182  -5.9166  -5.9166  -1.3092  -1.3021  -1.2771  -1.2589  -1.2368
 -1.2169  -1.2152  -1.2143  -1.2135  -1.2128  -1.1941  -1.1849  -1.1847
 -1.1834  -1.1608  -1.1425  -1.1024  -1.0796  -1.0356  -0.9792  -0.8445
 -0.8440  -0.8085  -0.7590  -0.7061  -0.6894  -0.6846  -0.6465  -0.6228
 -0.6068  -0.6032  -0.5947  -0.5870  -0.5804  -0.5741  -0.5699  -0.5626
 -0.5610  -0.5571  -0.5548  -0.5394  -0.5328  -0.5218  -0.5025  -0.4957
 -0.4756  -0.4727  -0.4600  -0.4567  -0.4508  -0.4505  -0.4500  -0.4445
 -0.4415  -0.4305  -0.4274  -0.4234  -0.4218  -0.4198  -0.4187  -0.4125
 -0.4074  -0.4053  -0.4011  -0.3975  -0.3965  -0.3938  -0.3920  -0.3908
 -0.3874  -0.3774  -0.3724  -0.3694  -0.3674  -0.3629  -0.3620  -0.3526
 -0.3467  -0.3405  -0.3300  -0.3261  -0.3106  -0.3104  -0.3059  -0.3042
 -0.3032  -0.2809  -0.2777  -0.2011  -0.2008  -0.1696  -0.1680  -0.1571
 -0.1183

          Ground-State Mulliken Net Atomic Charges

     Atom                 Charge (a.u.)
  ----------------------------------------
      1 C                     1.345409
      2 F                    -0.284811
      3 F                    -0.285887
      4 C                    -0.460225
      5 O                    -0.214903
      6 C                     0.620964
      7 C                     0.053310
      8 F                    -0.275532
      9 F                    -0.316459
     10 C                     1.270241
     11 F                    -0.287528
     12 F                    -0.301454
     13 F                    -0.287639
     14 F                    -0.313252
     15 F                    -0.311056
     16 F                    -0.321739
     17 O                    -0.402687
     18 C                     0.639556
     19 C                     1.347911
     20 C                     0.472394
     21 F                    -0.269100
     22 F                    -0.278825
     23 S                     1.301375
     24 F                    -0.307851
     25 F                    -0.308709
     26 F                    -0.290724
     27 F                    -0.273890
     28 F                    -0.332397
     29 O                    -0.614366
     30 O                    -0.648132
     31 O                    -0.663992
  ----------------------------------------
  Sum of atomic charges =    -1.000000

                    Cartesian Multipole Moments
 -----------------------------------------------------------------
    Charge (ESU x 10^10)
                -4.8032
    Dipole Moment (Debye)
         X      22.1625      Y      -2.3639      Z       0.2883
       Tot      22.2901
    Quadrupole Moments (Debye-Ang)
        XX    -313.6437     XY      13.7898     YY    -187.9071
        XZ      -2.3613     YZ       0.6693     ZZ    -186.2781

 Final energy is -2777.337838318430
	**  OPTIMIZATION CONVERGED  **

             Standard Nuclear Orientation (Angstroms)
    I     Atom           X                Y                Z
 ----------------------------------------------------------------
    1      C       3.9998360070     1.4717034166     0.7486585204
    2      F       3.1643644014     2.4930889133     0.9285182341
    3      F       4.1663067206     0.8400094277     1.9128277261
    4      C       3.4127179860     0.5081870818    -0.3303778835
    5      O       2.2159207672     0.0012952165     0.1667430433
    6      C       1.0017405605     0.2248419184    -0.4602789576
    7      C      -0.1303091193    -0.4469638821     0.4002750988
    8      F       0.0357979004     0.0087240904     1.6822108152
    9      F       5.1842775306     1.9580990786     0.3541112003
   10      C       4.3333681619    -0.7066633607    -0.6673571250
   11      F       4.5576931526    -1.4536053728     0.4158894646
   12      F       3.2777371732     1.2265324803    -1.4727153749
   13      F       3.7424924601    -1.4605849169    -1.5946088511
   14      F       5.5107057058    -0.2900805280    -1.1500575250
   15      F       0.9989829261    -0.2795779146    -1.7084147942
   16      F       0.7538498337     1.5395625439    -0.5496839800
   17      O      -1.2762192666     0.0077319354    -0.1865348038
   18      C      -2.5929613149    -0.3018646133     0.2458375325
   19      C      -0.0002062210    -2.0087796102     0.4818654449
   20      C      -3.5233083059     0.7769566997    -0.3683863784
   21      F      -2.9133089781    -1.5288368948    -0.1877522655
   22      F      -2.6498211897    -0.2984887404     1.5814562550
   23      S      -5.3909369599     0.5536790450    -0.0706816262
   24      F      -3.1127181336     1.9681098588     0.1436844997
   25      F      -3.2728084198     0.7969901741    -1.7050135206
   26      F      -0.8610020668    -2.4994401374     1.3722513180
   27      F      -0.2304468280    -2.5725925146    -0.7054827127
   28      F       1.2344256672    -2.3664827319     0.8777099042
   29      O      -5.9142558232     1.7853977293    -0.6525903703
   30      O      -5.6873705675    -0.6718111048    -0.8062913291
   31      O      -5.4707154417     0.4532075599     1.3842791729
 ----------------------------------------------------------------

 Total job time:  2833.72s(wall), 29838.98s(cpu)
        *  Thank you very much for using Q-Chem.  Have a nice day.  *
