 Q-Chem 6.2, Q-Chem, Inc., Pleasanton, CA (2024)
 Q-Chem 6.2.0 for Intel X86 EM64T Linux

User input:
--------------------------------------------------------------
$molecule
-1 1
C          4.11643       -1.48041       -0.71113
F          3.39409       -2.59960       -0.81726
F          4.22860       -0.91587       -1.91896
C          3.42207       -0.51789        0.28967
O          2.19271       -0.17339       -0.26905
C          1.01327       -0.29967        0.45351
C         -0.13361        0.37168       -0.37411
F          0.01715       -0.04365       -1.67355
F          5.34489       -1.80262       -0.27209
C          4.22273        0.78391        0.56775
F          4.46092        1.43773       -0.57729
F          3.31939       -1.18796        1.47185
F          3.52926        1.58045        1.38565
F          5.39884        0.49440        1.14858
F          1.10896        0.29403        1.66422
F          0.73814       -1.59933        0.65313
O         -1.28286       -0.10001        0.20694
C         -2.58410        0.27338       -0.22864
C         -0.00545        1.92942       -0.40146
C         -3.56377       -0.78378        0.32897
F         -2.86180        1.50249        0.24397
F         -2.61581        0.32085       -1.56915
S         -5.40120       -0.42965        0.07649
F         -3.22844       -1.95967       -0.27102
F         -3.29595       -0.90240        1.65906
F         -0.81928        2.44862       -1.32551
F         -0.30038        2.45428        0.79272
F          1.25554        2.29549       -0.71642
O         -6.01000       -1.70152        0.51923
O         -5.62749        0.73480        0.95974
O         -5.46900       -0.15244       -1.37593
$end

$rem
job_type=opt
basis=aug-cc-pvtz
method=b3lyp
$end
--------------------------------------------------------------

   15   -2777.4995353373      9.62e-09  Convergence criterion met
 Total energy = -2777.49953534
   11   -2777.5010282603      5.94e-09  Convergence criterion met
 Total energy = -2777.50102826
   10   -2777.5017686639      7.57e-09  Convergence criterion met
 Total energy = -2777.50176866
   10   -2777.5018728444      4.25e-09  Convergence criterion met
 Total energy = -2777.50187284
    9   -2777.5019328555      8.71e-09  Convergence criterion met
 Total energy = -2777.50193286
   10   -2777.5019161072      4.49e-09  Convergence criterion met
 Total energy = -2777.50191611
    9   -2777.5020061199      7.89e-09  Convergence criterion met
 Total energy = -2777.50200612
    9   -2777.5020186377      6.54e-09  Convergence criterion met
 Total energy = -2777.50201864
    9   -2777.5020408934      6.61e-09  Convergence criterion met
 Total energy = -2777.50204089
    9   -2777.5020454420      3.63e-09  Convergence criterion met
 Total energy = -2777.50204544
    8   -2777.5020472666      7.80e-09  Convergence criterion met
 Total energy = -2777.50204727
    7   -2777.5020475030      8.65e-09  Convergence criterion met
 Total energy = -2777.50204750

                    Orbital Energies (a.u.)
 --------------------------------------------------------------

 Alpha MOs
 -- Occupied --
-88.9482 -24.6993 -24.6989 -24.6983 -24.6977 -24.6973 -24.6958 -24.6947
-24.6718 -24.6705 -24.6695 -24.6690 -24.6681 -24.6513 -24.6280 -24.6258
-24.5971 -24.5971 -19.1673 -19.1265 -18.9626 -18.9620 -18.9617 -10.4144
-10.4134 -10.3860 -10.3812 -10.3471 -10.3307 -10.3141 -10.2471  -7.9665
 -5.9317  -5.9296  -5.9295  -1.3059  -1.2991  -1.2745  -1.2566  -1.2346
 -1.2145  -1.2128  -1.2125  -1.2111  -1.2105  -1.1926  -1.1832  -1.1830
 -1.1821  -1.1607  -1.1414  -1.1027  -1.0761  -1.0327  -0.9731  -0.8394
 -0.8388  -0.8039  -0.7551  -0.7022  -0.6861  -0.6811  -0.6429  -0.6196
 -0.6030  -0.5996  -0.5909  -0.5839  -0.5768  -0.5708  -0.5663  -0.5594
 -0.5579  -0.5540  -0.5518  -0.5363  -0.5301  -0.5194  -0.5001  -0.4939
 -0.4741  -0.4708  -0.4583  -0.4554  -0.4492  -0.4489  -0.4485  -0.4431
 -0.4403  -0.4291  -0.4263  -0.4220  -0.4206  -0.4187  -0.4176  -0.4115
 -0.4065  -0.4046  -0.4002  -0.3967  -0.3954  -0.3929  -0.3911  -0.3899
 -0.3858  -0.3769  -0.3713  -0.3690  -0.3661  -0.3623  -0.3621  -0.3515
 -0.3465  -0.3392  -0.3301  -0.3248  -0.3091  -0.3079  -0.3041  -0.3034
 -0.3025  -0.2798  -0.2767  -0.1975  -0.1973  -0.1679  -0.1663  -0.1552
 -0.1202

          Ground-State Mulliken Net Atomic Charges

     Atom                 Charge (a.u.)
  ----------------------------------------
      1 C                     0.954525
      2 F                    -0.393535
      3 F                    -0.403618
      4 C                     1.222058
      5 O                    -0.503304
      6 C                     1.343374
      7 C                     1.047499
      8 F                    -0.594893
      9 F                    -0.396990
     10 C                     0.940637
     11 F                    -0.407886
     12 F                    -0.554526
     13 F                    -0.401482
     14 F                    -0.398240
     15 F                    -0.505393
     16 F                    -0.470858
     17 O                    -0.391019
     18 C                     1.225694
     19 C                     0.977009
     20 C                     0.690547
     21 F                    -0.471058
     22 F                    -0.459433
     23 S                     2.033942
     24 F                    -0.501142
     25 F                    -0.486628
     26 F                    -0.412165
     27 F                    -0.425284
     28 F                    -0.403687
     29 O                    -0.944991
     30 O                    -0.950684
     31 O                    -0.958472
  ----------------------------------------
  Sum of atomic charges =    -1.000000

                    Cartesian Multipole Moments
 -----------------------------------------------------------------
    Charge (ESU x 10^10)
                -4.8032
    Dipole Moment (Debye)
         X      22.2142      Y      -2.4097      Z       0.2493
       Tot      22.3459
    Quadrupole Moments (Debye-Ang)
        XX    -314.3687     XY      14.3381     YY    -187.8430
        XZ      -2.1514     YZ       0.6056     ZZ    -186.0559

 Final energy is -2777.502047503035
	**  OPTIMIZATION CONVERGED  **

             Standard Nuclear Orientation (Angstroms)
    I     Atom           X                Y                Z
 ----------------------------------------------------------------
    1      C       3.9790701315     1.5078280366     0.7287728605
    2      F       3.1280326049     2.5231059540     0.8696448647
    3      F       4.1370996102     0.9113739493     1.9126038700
    4      C       3.4188727198     0.5056602032    -0.3351899035
    5      O       2.2191454430    -0.0030908821     0.1512719920
    6      C       1.0042121616     0.1996071389    -0.4838971641
    7      C      -0.1273724389    -0.4687685565     0.3873931718
    8      F       0.0475812470    -0.0142985814     1.6676255696
    9      F       5.1625101824     1.9997262325     0.3382676013
   10      C       4.3610274673    -0.7095720614    -0.6267157520
   11      F       4.5699620322    -1.4335055740     0.4751599662
   12      F       3.2939200694     1.1916437340    -1.4987649134
   13      F       3.7982952471    -1.4887759008    -1.5512028932
   14      F       5.5447604994    -0.2920065948    -1.0929998102
   15      F       1.0125136927    -0.3292077519    -1.7221142869
   16      F       0.7473908346     1.5097661415    -0.6011163356
   17      O      -1.2780193238    -0.0095359144    -0.1875286075
   18      C      -2.5968652192    -0.3053798222     0.2490316067
   19      C      -0.0037632861    -2.0350925619     0.4645210990
   20      C      -3.5181658206     0.7973531927    -0.3435385308
   21      F      -2.9378522231    -1.5221206678    -0.1978595151
   22      F      -2.6451347273    -0.3192666347     1.5849083479
   23      S      -5.3985243906     0.5745329545    -0.0638850695
   24      F      -3.1087670978     1.9704559414     0.2065674000
   25      F      -3.2632549877     0.8576594184    -1.6765499589
   26      F      -0.8525561384    -2.5241294231     1.3676652154
   27      F      -0.2564723816    -2.5972283905    -0.7190612076
   28      F       1.2359827042    -2.3987593670     0.8387683204
   29      O      -5.9104669431     1.8478034538    -0.5753678619
   30      O      -5.7110225529    -0.6056276111    -0.8736563632
   31      O      -5.4883107975     0.3881947919     1.3873370203
 ----------------------------------------------------------------

 Total job time:  15410.45s(wall), 511023.66s(cpu)
        *  Thank you very much for using Q-Chem.  Have a nice day.  *
