 Q-Chem 6.2, Q-Chem, Inc., Pleasanton, CA (2024)
 Q-Chem 6.2.0 for Intel X86 EM64T Linux

User input:
--------------------------------------------------------------
$molecule
-1 1
C          4.11643       -1.48041       -0.71113
F          3.39409       -2.59960       -0.81726
F          4.22860       -0.91587       -1.91896
C          3.42207       -0.51789        0.28967
O          2.19271       -0.17339       -0.26905
C          1.01327       -0.29967        0.45351
C         -0.13361        0.37168       -0.37411
F          0.01715       -0.04365       -1.67355
F          5.34489       -1.80262       -0.27209
C          4.22273        0.78391        0.56775
F          4.46092        1.43773       -0.57729
F          3.31939       -1.18796        1.47185
F          3.52926        1.58045        1.38565
F          5.39884        0.49440        1.14858
F          1.10896        0.29403        1.66422
F          0.73814       -1.59933        0.65313
O         -1.28286       -0.10001        0.20694
C         -2.58410        0.27338       -0.22864
C         -0.00545        1.92942       -0.40146
C         -3.56377       -0.78378        0.32897
F         -2.86180        1.50249        0.24397
F         -2.61581        0.32085       -1.56915
S         -5.40120       -0.42965        0.07649
F         -3.22844       -1.95967       -0.27102
F         -3.29595       -0.90240        1.65906
F         -0.81928        2.44862       -1.32551
F         -0.30038        2.45428        0.79272
F          1.25554        2.29549       -0.71642
O         -6.01000       -1.70152        0.51923
O         -5.62749        0.73480        0.95974
O         -5.46900       -0.15244       -1.37593
$end

$rem
job_type=opt
basis=6-31G*
method=b3lyp
$end
--------------------------------------------------------------

   16   -2776.4310355839      5.88e-09  Convergence criterion met
 Total energy = -2776.43103558
   11   -2776.4310639705      5.01e-09  Convergence criterion met
 Total energy = -2776.43106397
   10   -2776.4310829945      4.59e-09  Convergence criterion met
 Total energy = -2776.43108299
   10   -2776.4310770308      5.56e-09  Convergence criterion met
 Total energy = -2776.43107703
    9   -2776.4311407336      8.92e-09  Convergence criterion met
 Total energy = -2776.43114073
    9   -2776.4311509138      6.48e-09  Convergence criterion met
 Total energy = -2776.43115091
    9   -2776.4311633526      5.74e-09  Convergence criterion met
 Total energy = -2776.43116335
   10   -2776.4311752845      9.62e-09  Convergence criterion met
 Total energy = -2776.43117528
    9   -2776.4311939878      4.84e-09  Convergence criterion met
 Total energy = -2776.43119399
    9   -2776.4311981523      2.71e-09  Convergence criterion met
 Total energy = -2776.43119815
    9   -2776.4311990311      7.72e-09  Convergence criterion met
 Total energy = -2776.43119903

                    Orbital Energies (a.u.)
 --------------------------------------------------------------

 Alpha MOs
 -- Occupied --
-88.9417 -24.6993 -24.6987 -24.6983 -24.6979 -24.6976 -24.6965 -24.6944
-24.6723 -24.6693 -24.6689 -24.6671 -24.6666 -24.6479 -24.6255 -24.6238
-24.5913 -24.5910 -19.1713 -19.1292 -18.9627 -18.9618 -18.9615 -10.4088
-10.4084 -10.3787 -10.3743 -10.3361 -10.3215 -10.3026 -10.2351  -7.9628
 -5.9279  -5.9270  -5.9270  -1.2840  -1.2766  -1.2504  -1.2344  -1.2113
 -1.1929  -1.1912  -1.1897  -1.1888  -1.1878  -1.1683  -1.1604  -1.1594
 -1.1585  -1.1336  -1.1165  -1.0759  -1.0573  -1.0121  -0.9457  -0.8122
 -0.8113  -0.7864  -0.7361  -0.6824  -0.6646  -0.6596  -0.6209  -0.5973
 -0.5812  -0.5768  -0.5686  -0.5612  -0.5538  -0.5479  -0.5434  -0.5358
 -0.5336  -0.5296  -0.5270  -0.5115  -0.5060  -0.4944  -0.4744  -0.4701
 -0.4506  -0.4470  -0.4339  -0.4306  -0.4242  -0.4241  -0.4214  -0.4181
 -0.4156  -0.4032  -0.4014  -0.3978  -0.3963  -0.3932  -0.3928  -0.3859
 -0.3819  -0.3791  -0.3753  -0.3724  -0.3708  -0.3684  -0.3663  -0.3650
 -0.3615  -0.3511  -0.3474  -0.3430  -0.3417  -0.3358  -0.3347  -0.3248
 -0.3188  -0.3143  -0.3019  -0.2976  -0.2830  -0.2826  -0.2816  -0.2782
 -0.2746  -0.2568  -0.2497  -0.1679  -0.1676  -0.1380  -0.1361  -0.1281
 -0.0905

          Ground-State Mulliken Net Atomic Charges

     Atom                 Charge (a.u.)
  ----------------------------------------
      1 C                     0.809547
      2 F                    -0.240803
      3 F                    -0.244171
      4 C                     0.377036
      5 O                    -0.531628
      6 C                     0.812444
      7 C                     0.429907
      8 F                    -0.290724
      9 F                    -0.253074
     10 C                     0.809001
     11 F                    -0.243245
     12 F                    -0.280866
     13 F                    -0.243571
     14 F                    -0.252781
     15 F                    -0.267502
     16 F                    -0.259494
     17 O                    -0.543535
     18 C                     0.782441
     19 C                     0.799785
     20 C                     0.321918
     21 F                    -0.257507
     22 F                    -0.256734
     23 S                     1.113635
     24 F                    -0.289514
     25 F                    -0.289456
     26 F                    -0.244190
     27 F                    -0.244682
     28 F                    -0.263426
     29 O                    -0.579627
     30 O                    -0.586427
     31 O                    -0.592760
  ----------------------------------------
  Sum of atomic charges =    -1.000000

                    Cartesian Multipole Moments
 -----------------------------------------------------------------
    Charge (ESU x 10^10)
                -4.8032
    Dipole Moment (Debye)
         X      22.7726      Y      -2.0665      Z       0.1512
       Tot      22.8667
    Quadrupole Moments (Debye-Ang)
        XX    -307.8291     XY      12.7056     YY    -179.4862
        XZ      -2.0088     YZ       0.4863     ZZ    -178.4242

 Final energy is -2776.431199031087
	**  OPTIMIZATION CONVERGED  **

             Standard Nuclear Orientation (Angstroms)
    I     Atom           X                Y                Z
 ----------------------------------------------------------------
    1      C       4.0278623841     1.4989074496     0.7094184883
    2      F       3.1926787936     2.5293780996     0.8681398906
    3      F       4.2244550183     0.9070573081     1.8941847414
    4      C       3.4195197346     0.4983761711    -0.3086572476
    5      O       2.2119274919     0.0447976727     0.2235914477
    6      C       1.0179740166     0.2358895055    -0.4561231269
    7      C      -0.1307200962    -0.4221470999     0.3786343052
    8      F       0.0304615695     0.0012468664     1.6746463215
    9      F       5.2058099776     1.9650320906     0.2624303107
   10      C       4.3037607423    -0.7450864308    -0.5901432204
   11      F       4.5025830867    -1.4467524679     0.5323473315
   12      F       3.2851974815     1.1679784672    -1.4873710796
   13      F       3.6980171420    -1.5255290350    -1.4907455152
   14      F       5.4980417791    -0.3718068285    -1.0787774050
   15      F       1.0659804835    -0.3187196045    -1.6877156270
   16      F       0.7749738553     1.5500187840    -0.6020085655
   17      O      -1.2732467103     0.0634095048    -0.2050466954
   18      C      -2.5817122114    -0.2725090930     0.2378653089
   19      C      -0.0272539039    -1.9807667003     0.4207333255
   20      C      -3.5385764167     0.7927962367    -0.3432999964
   21      F      -2.8877990450    -1.5042818641    -0.2097450212
   22      F      -2.6145602422    -0.2914495932     1.5791741567
   23      S      -5.3830783293     0.5015591560    -0.0592067778
   24      F      -3.1644202576     1.9789213422     0.2123029490
   25      F      -3.2827891929     0.8586786413    -1.6794578406
   26      F      -0.8706281799    -2.4793975409     1.3295238065
   27      F      -0.3036342427    -2.5089098526    -0.7771197109
   28      F       1.2181840756    -2.3649760451     0.7689036768
   29      O      -5.9604806070     1.7678422748    -0.5565931635
   30      O      -5.6503440682    -0.6958968755    -0.8848137958
   31      O      -5.4443558103     0.2946843079     1.4050194608
 ----------------------------------------------------------------

 Total job time:  325.52s(wall), 4163.23s(cpu)
        *  Thank you very much for using Q-Chem.  Have a nice day.  *
