 Q-Chem 6.2, Q-Chem, Inc., Pleasanton, CA (2024)
 Q-Chem 6.2.0 for Intel X86 EM64T Linux

User input:
--------------------------------------------------------------
$molecule
-1 1
C          4.11643       -1.48041       -0.71113
F          3.39409       -2.59960       -0.81726
F          4.22860       -0.91587       -1.91896
C          3.42207       -0.51789        0.28967
O          2.19271       -0.17339       -0.26905
C          1.01327       -0.29967        0.45351
C         -0.13361        0.37168       -0.37411
F          0.01715       -0.04365       -1.67355
F          5.34489       -1.80262       -0.27209
C          4.22273        0.78391        0.56775
F          4.46092        1.43773       -0.57729
F          3.31939       -1.18796        1.47185
F          3.52926        1.58045        1.38565
F          5.39884        0.49440        1.14858
F          1.10896        0.29403        1.66422
F          0.73814       -1.59933        0.65313
O         -1.28286       -0.10001        0.20694
C         -2.58410        0.27338       -0.22864
C         -0.00545        1.92942       -0.40146
C         -3.56377       -0.78378        0.32897
F         -2.86180        1.50249        0.24397
F         -2.61581        0.32085       -1.56915
S         -5.40120       -0.42965        0.07649
F         -3.22844       -1.95967       -0.27102
F         -3.29595       -0.90240        1.65906
F         -0.81928        2.44862       -1.32551
F         -0.30038        2.45428        0.79272
F          1.25554        2.29549       -0.71642
O         -6.01000       -1.70152        0.51923
O         -5.62749        0.73480        0.95974
O         -5.46900       -0.15244       -1.37593
$end

$rem
job_type=opt
basis=6-31G*
method=b3lyp
$end
--------------------------------------------------------------

   16   -2776.4313148877      5.88e-09  Convergence criterion met
 Total energy = -2776.43131489
   11   -2776.4313345801      4.99e-09  Convergence criterion met
 Total energy = -2776.43133458
   10   -2776.4313619689      4.54e-09  Convergence criterion met
 Total energy = -2776.43136197
   10   -2776.4313711531      5.55e-09  Convergence criterion met
 Total energy = -2776.43137115
    9   -2776.4314192890      8.87e-09  Convergence criterion met
 Total energy = -2776.43141929
    9   -2776.4314289230      6.44e-09  Convergence criterion met
 Total energy = -2776.43142892
    9   -2776.4314409148      5.81e-09  Convergence criterion met
 Total energy = -2776.43144091
   10   -2776.4314729913      9.90e-09  Convergence criterion met
 Total energy = -2776.43147299
    9   -2776.4314780914      4.90e-09  Convergence criterion met
 Total energy = -2776.43147809
    9   -2776.4314826254      2.59e-09  Convergence criterion met
 Total energy = -2776.43148263
    9   -2776.4314840499      7.88e-09  Convergence criterion met
 Total energy = -2776.43148405
    8   -2776.4314849254      8.39e-09  Convergence criterion met
 Total energy = -2776.43148493

                    Orbital Energies (a.u.)
 --------------------------------------------------------------

 Alpha MOs
 -- Occupied --
-88.9415 -24.6990 -24.6985 -24.6981 -24.6977 -24.6974 -24.6964 -24.6942
-24.6721 -24.6691 -24.6687 -24.6669 -24.6664 -24.6478 -24.6253 -24.6236
-24.5911 -24.5908 -19.1712 -19.1291 -18.9624 -18.9616 -18.9613 -10.4086
-10.4082 -10.3784 -10.3742 -10.3359 -10.3213 -10.3024 -10.2349  -7.9626
 -5.9277  -5.9268  -5.9268  -1.2839  -1.2765  -1.2503  -1.2343  -1.2112
 -1.1927  -1.1911  -1.1895  -1.1886  -1.1877  -1.1682  -1.1603  -1.1592
 -1.1584  -1.1335  -1.1164  -1.0758  -1.0571  -1.0120  -0.9456  -0.8121
 -0.8112  -0.7863  -0.7360  -0.6823  -0.6644  -0.6595  -0.6208  -0.5972
 -0.5810  -0.5767  -0.5684  -0.5611  -0.5536  -0.5478  -0.5433  -0.5357
 -0.5335  -0.5295  -0.5269  -0.5114  -0.5058  -0.4943  -0.4743  -0.4699
 -0.4505  -0.4469  -0.4338  -0.4304  -0.4241  -0.4240  -0.4212  -0.4179
 -0.4155  -0.4031  -0.4013  -0.3977  -0.3961  -0.3930  -0.3927  -0.3857
 -0.3817  -0.3789  -0.3751  -0.3722  -0.3707  -0.3683  -0.3661  -0.3649
 -0.3614  -0.3510  -0.3473  -0.3428  -0.3415  -0.3356  -0.3345  -0.3247
 -0.3187  -0.3142  -0.3017  -0.2975  -0.2829  -0.2825  -0.2814  -0.2780
 -0.2745  -0.2566  -0.2495  -0.1678  -0.1674  -0.1379  -0.1360  -0.1280
 -0.0903

          Ground-State Mulliken Net Atomic Charges

     Atom                 Charge (a.u.)
  ----------------------------------------
      1 C                     0.809492
      2 F                    -0.240812
      3 F                    -0.244172
      4 C                     0.376968
      5 O                    -0.531683
      6 C                     0.812458
      7 C                     0.429833
      8 F                    -0.290664
      9 F                    -0.253060
     10 C                     0.808963
     11 F                    -0.243305
     12 F                    -0.280801
     13 F                    -0.243477
     14 F                    -0.252771
     15 F                    -0.267487
     16 F                    -0.259395
     17 O                    -0.543555
     18 C                     0.782427
     19 C                     0.799789
     20 C                     0.321800
     21 F                    -0.257516
     22 F                    -0.256708
     23 S                     1.113656
     24 F                    -0.289439
     25 F                    -0.289408
     26 F                    -0.244239
     27 F                    -0.244653
     28 F                    -0.263439
     29 O                    -0.579627
     30 O                    -0.586416
     31 O                    -0.592761
  ----------------------------------------
  Sum of atomic charges =    -1.000000

                    Cartesian Multipole Moments
 -----------------------------------------------------------------
    Charge (ESU x 10^10)
                -4.8032
    Dipole Moment (Debye)
         X      22.7776      Y      -2.0467      Z       0.1633
       Tot      22.8699
    Quadrupole Moments (Debye-Ang)
        XX    -307.8935     XY      12.5977     YY    -179.4424
        XZ      -2.0808     YZ       0.4923     ZZ    -178.4136

 Final energy is -2776.431484925422
	**  OPTIMIZATION CONVERGED  **

             Standard Nuclear Orientation (Angstroms)
    I     Atom           X                Y                Z
 ----------------------------------------------------------------
    1      C       4.0334183953     1.4950106499     0.7110965068
    2      F       3.2021332560     2.5280247687     0.8732424795
    3      F       4.2297679766     0.8997901394     1.8942116642
    4      C       3.4199969999     0.4987678740    -0.3082617890
    5      O       2.2118963249     0.0484795452     0.2255781090
    6      C       1.0177859468     0.2402579594    -0.4539187314
    7      C      -0.1310963994    -0.4179293964     0.3805789725
    8      F       0.0285283779     0.0065497712     1.6764106160
    9      F       5.2123445246     1.9579212862     0.2635153605
   10      C       4.3005017257    -0.7464701547    -0.5940706751
   11      F       4.5055795816    -1.4469849412     0.5279947822
   12      F       3.2855812630     1.1713059729    -1.4852907124
   13      F       3.6884270424    -1.5273761957    -1.4898470973
   14      F       5.4922196882    -0.3754567946    -1.0906393429
   15      F       1.0653811655    -0.3133229101    -1.6859683410
   16      F       0.7750754583     1.5544889886    -0.5989493239
   17      O      -1.2736542256     0.0659493087    -0.2043779242
   18      C      -2.5818952285    -0.2723173429     0.2372853888
   19      C      -0.0269206791    -1.9763997908     0.4240516659
   20      C      -3.5401784506     0.7912932266    -0.3447149673
   21      F      -2.8851305259    -1.5046592980    -0.2107002144
   22      F      -2.6158535332    -0.2914139566     1.5785097036
   23      S      -5.3843798850     0.4967346887    -0.0622871081
   24      F      -3.1687244142     1.9780870856     0.2111902549
   25      F      -3.2832421446     0.8575541220    -1.6806333881
   26      F      -0.8701831139    -2.4746792227     1.3332091176
   27      F      -0.3030369378    -2.5057619897    -0.7732495323
   28      F       1.2186755725    -2.3596794868     0.7725155093
   29      O      -5.9636804688     1.7618894954    -0.5602566164
   30      O      -5.6487913522    -0.7012400048    -0.8880122309
   31      O      -5.4467176221     0.2899314495     1.4018785961
 ----------------------------------------------------------------

 Total job time:  181.66s(wall), 6579.04s(cpu)
        *  Thank you very much for using Q-Chem.  Have a nice day.  *
