 Q-Chem 6.2, Q-Chem, Inc., Pleasanton, CA (2024)
 Q-Chem 6.2.0 for Intel X86 EM64T Linux

User input:
--------------------------------------------------------------
$molecule
-1 1
C          4.11643       -1.48041       -0.71113
F          3.39409       -2.59960       -0.81726
F          4.22860       -0.91587       -1.91896
C          3.42207       -0.51789        0.28967
O          2.19271       -0.17339       -0.26905
C          1.01327       -0.29967        0.45351
C         -0.13361        0.37168       -0.37411
F          0.01715       -0.04365       -1.67355
F          5.34489       -1.80262       -0.27209
C          4.22273        0.78391        0.56775
F          4.46092        1.43773       -0.57729
F          3.31939       -1.18796        1.47185
F          3.52926        1.58045        1.38565
F          5.39884        0.49440        1.14858
F          1.10896        0.29403        1.66422
F          0.73814       -1.59933        0.65313
O         -1.28286       -0.10001        0.20694
C         -2.58410        0.27338       -0.22864
C         -0.00545        1.92942       -0.40146
C         -3.56377       -0.78378        0.32897
F         -2.86180        1.50249        0.24397
F         -2.61581        0.32085       -1.56915
S         -5.40120       -0.42965        0.07649
F         -3.22844       -1.95967       -0.27102
F         -3.29595       -0.90240        1.65906
F         -0.81928        2.44862       -1.32551
F         -0.30038        2.45428        0.79272
F          1.25554        2.29549       -0.71642
O         -6.01000       -1.70152        0.51923
O         -5.62749        0.73480        0.95974
O         -5.46900       -0.15244       -1.37593
$end

$rem
job_type=opt
basis=aug-cc-pvtz
method=b3lyp
$end
--------------------------------------------------------------

   15   -2777.4995350644      9.75e-09  Convergence criterion met
 Total energy = -2777.49953506
   11   -2777.5010229614      6.04e-09  Convergence criterion met
 Total energy = -2777.50102296
   10   -2777.5017685459      7.64e-09  Convergence criterion met
 Total energy = -2777.50176855
   10   -2777.5018728061      4.31e-09  Convergence criterion met
 Total energy = -2777.50187281
    9   -2777.5019324579      9.10e-09  Convergence criterion met
 Total energy = -2777.50193246
   10   -2777.5019174374      4.73e-09  Convergence criterion met
 Total energy = -2777.50191744
    9   -2777.5020070321      7.77e-09  Convergence criterion met
 Total energy = -2777.50200703
    9   -2777.5020195645      6.55e-09  Convergence criterion met
 Total energy = -2777.50201956
    9   -2777.5020411637      6.84e-09  Convergence criterion met
 Total energy = -2777.50204116
    9   -2777.5020452144      4.05e-09  Convergence criterion met
 Total energy = -2777.50204521
    8   -2777.5020468646      7.59e-09  Convergence criterion met
 Total energy = -2777.50204686
    7   -2777.5020471252      8.67e-09  Convergence criterion met
 Total energy = -2777.50204713

                    Orbital Energies (a.u.)
 --------------------------------------------------------------

 Alpha MOs
 -- Occupied --
-88.9484 -24.6996 -24.6991 -24.6985 -24.6979 -24.6976 -24.6960 -24.6950
-24.6720 -24.6707 -24.6697 -24.6692 -24.6683 -24.6515 -24.6282 -24.6260
-24.5974 -24.5973 -19.1675 -19.1266 -18.9629 -18.9622 -18.9619 -10.4146
-10.4137 -10.3862 -10.3814 -10.3473 -10.3309 -10.3143 -10.2473  -7.9667
 -5.9319  -5.9297  -5.9297  -1.3061  -1.2992  -1.2746  -1.2567  -1.2347
 -1.2147  -1.2129  -1.2126  -1.2113  -1.2107  -1.1928  -1.1833  -1.1832
 -1.1823  -1.1608  -1.1416  -1.1028  -1.0762  -1.0328  -0.9732  -0.8395
 -0.8389  -0.8041  -0.7552  -0.7023  -0.6862  -0.6812  -0.6431  -0.6197
 -0.6031  -0.5997  -0.5910  -0.5840  -0.5769  -0.5710  -0.5665  -0.5596
 -0.5581  -0.5541  -0.5520  -0.5365  -0.5302  -0.5195  -0.5002  -0.4940
 -0.4742  -0.4709  -0.4584  -0.4556  -0.4493  -0.4491  -0.4487  -0.4433
 -0.4405  -0.4293  -0.4265  -0.4222  -0.4208  -0.4189  -0.4178  -0.4116
 -0.4067  -0.4048  -0.4003  -0.3969  -0.3955  -0.3931  -0.3912  -0.3900
 -0.3859  -0.3771  -0.3715  -0.3692  -0.3662  -0.3625  -0.3623  -0.3517
 -0.3466  -0.3394  -0.3303  -0.3250  -0.3093  -0.3081  -0.3042  -0.3035
 -0.3026  -0.2800  -0.2769  -0.1977  -0.1974  -0.1681  -0.1665  -0.1553
 -0.1204

          Ground-State Mulliken Net Atomic Charges

     Atom                 Charge (a.u.)
  ----------------------------------------
      1 C                     0.954597
      2 F                    -0.393515
      3 F                    -0.403610
      4 C                     1.221736
      5 O                    -0.503062
      6 C                     1.343413
      7 C                     1.047095
      8 F                    -0.594865
      9 F                    -0.396982
     10 C                     0.940433
     11 F                    -0.407851
     12 F                    -0.554489
     13 F                    -0.401452
     14 F                    -0.398191
     15 F                    -0.505277
     16 F                    -0.470865
     17 O                    -0.391061
     18 C                     1.226409
     19 C                     0.976923
     20 C                     0.690156
     21 F                    -0.471107
     22 F                    -0.459422
     23 S                     2.033827
     24 F                    -0.501132
     25 F                    -0.486484
     26 F                    -0.412216
     27 F                    -0.425297
     28 F                    -0.403680
     29 O                    -0.944994
     30 O                    -0.950502
     31 O                    -0.958535
  ----------------------------------------
  Sum of atomic charges =    -1.000000

                    Cartesian Multipole Moments
 -----------------------------------------------------------------
    Charge (ESU x 10^10)
                -4.8032
    Dipole Moment (Debye)
         X      22.2120      Y      -2.4090      Z       0.2529
       Tot      22.3436
    Quadrupole Moments (Debye-Ang)
        XX    -314.3832     XY      14.3389     YY    -187.8654
        XZ      -2.1697     YZ       0.6076     ZZ    -186.0796

 Final energy is -2777.502047125226
	**  OPTIMIZATION CONVERGED  **

             Standard Nuclear Orientation (Angstroms)
    I     Atom           X                Y                Z
 ----------------------------------------------------------------
    1      C       3.9780296799     1.5084287027     0.7279661631
    2      F       3.1263393200     2.5232787427     0.8680192939
    3      F       4.1358349327     0.9125315362     1.9121125838
    4      C       3.4188456306     0.5053926333    -0.3359050187
    5      O       2.2191559699    -0.0038401939     0.1500758895
    6      C       1.0040688505     0.1985653653    -0.4849695547
    7      C      -0.1272489998    -0.4690175676     0.3874632086
    8      F       0.0485102859    -0.0139249262     1.6673430333
    9      F       5.1613860210     2.0007918078     0.3377777495
   10      C       4.3619208132    -0.7095842506    -0.6261960124
   11      F       4.5704555483    -1.4329116288     0.4761520752
   12      F       3.2941546541     1.1906363410    -1.4999304081
   13      F       3.8001931558    -1.4894992166    -1.5507182604
   14      F       5.5457578036    -0.2915928256    -1.0918482635
   15      F       1.0120479000    -0.3313588682    -1.7227043504
   16      F       0.7473597395     1.5086300611    -0.6032925794
   17      O      -1.2780754470    -0.0098367213    -0.1870681587
   18      C      -2.5970023505    -0.3051753591     0.2497084778
   19      C      -0.0039642185    -2.0354727525     0.4652737333
   20      C      -3.5177696877     0.7984961157    -0.3422451075
   21      F      -2.9386822270    -1.5215539567    -0.1975889172
   22      F      -2.6449240964    -0.3195437876     1.5855891887
   23      S      -5.3984436388     0.5745358481    -0.0648795662
   24      F      -3.1090744264     1.9706896343     0.2103002927
   25      F      -3.2614258855     0.8611316464    -1.6748522610
   26      F      -0.8527736900    -2.5238843402     1.3687554141
   27      F      -0.2570290787    -2.5980721572    -0.7180129708
   28      F       1.2357889603    -2.3991936256     0.8394541634
   29      O      -5.9102073776     1.8496481038    -0.5719774722
   30      O      -5.7101355364    -0.6026588470    -0.8793029884
   31      O      -5.4892642863     0.3827093335     1.3855913550
 ----------------------------------------------------------------

 Total job time:  10361.94s(wall), 4369.45s(cpu)
        *  Thank you very much for using Q-Chem.  Have a nice day.  *
